          12
 optimization step            1
    6       -35.894866    9.288626   10.054420
    6       -36.369609    8.136872    9.487425
    6       -34.536331    9.569570    9.955502
    6       -35.492308    7.159723    8.983842
    6       -33.712643    8.697458    9.304412
    6       -34.183340    7.494548    8.762036
    1       -36.585465    9.939934   10.537961
    1       -37.450824    8.064607    9.436016
    1       -34.070057   10.502494   10.500065
    1       -35.950748    6.201235    8.765212
    1       -33.438373    6.826374    8.246956
    1       -32.654911    8.872607    9.123019
          12
 optimization step            1
    6       -35.846421    9.374438   10.092102
    6       -36.428883    8.044359    9.438341
    6       -34.508139    9.769570   10.094222
    6       -35.641575    7.127274    8.990064
    6       -33.596942    8.626018    9.222984
    6       -34.040276    7.463133    8.730756
    1       -36.620891    9.993578   10.576381
    1       -37.483155    8.030297    9.427654
    1       -34.125211   10.413077   10.436222
    1       -35.941745    6.165821    8.749214
    1       -33.482001    6.847676    8.261702
    1       -32.624238    8.898808    9.137227
          12
 optimization step            2
    6       -35.860505    9.331249   10.071052
    6       -36.389075    8.129541    9.477051
    6       -34.504452    9.604467    9.994034
    6       -35.539565    7.151327    8.971417
    6       -33.674373    8.690129    9.278089
    6       -34.162703    7.486792    8.777274
    1       -36.611426    9.991579   10.573411
    1       -37.496855    8.022420    9.426682
    1       -34.096198   10.471523   10.466517
    1       -35.943111    6.146025    8.740480
    1       -33.464120    6.819620    8.243310
    1       -32.597093    8.909378    9.137549
          12
 optimization step            3
    6       -36.060505    9.216550   10.041940
    6       -36.436144    8.292350    9.556550
    6       -34.405449    9.499030    9.909928
    6       -35.412489    7.106894    8.929521
    6       -33.646639    8.814213    9.350528
    6       -34.277063    7.394188    8.757730
    1       -36.558675    9.974864   10.554554
    1       -37.455589    8.016481    9.432125
    1       -34.059050   10.535796   10.491104
    1       -35.919932    6.170617    8.734506
    1       -33.488733    6.816656    8.250039
    1       -32.619209    8.916410    9.148343
          12
 optimization step            4
    6       -36.061788    9.166856   10.007510
    6       -36.450475    8.165594    9.495050
    6       -34.561222    9.492637    9.924713
    6       -35.467533    7.210974    8.984721
    6       -33.658309    8.690977    9.348128
    6       -34.223320    7.462267    8.776916
    1       -36.406049    9.959430   10.518572
    1       -37.372147    7.994100    9.458432
    1       -34.033711   10.566449   10.470580
    1       -35.840075    6.316784    8.720545
    1       -33.582142    6.797632    8.278750
    1       -32.682706    8.930349    9.172950
          12
 optimization step            5
    6       -35.891680    9.309516   10.063776
    6       -36.401481    8.142038    9.482959
    6       -34.507215    9.586052    9.982157
    6       -35.525563    7.155985    8.970356
    6       -33.667545    8.697157    9.289896
    6       -34.176082    7.478339    8.776427
    1       -36.584174    9.989652   10.567562
    1       -37.482524    8.015550    9.430225
    1       -34.087664   10.485575   10.466690
    1       -35.928686    6.164410    8.735711
    1       -33.481198    6.815246    8.247301
    1       -32.605666    8.914528    9.143806
          12
 optimization step            6
    6       -35.923660    9.231544   10.026185
    6       -36.443743    8.132922    9.478542
    6       -34.509389    9.544150    9.960288
    6       -35.536448    7.244072    8.975179
    6       -33.679582    8.676994    9.376337
    6       -34.184715    7.525842    8.819837
    1       -36.384174   10.089816   10.589533
    1       -37.532570    7.850264    9.451974
    1       -34.108739   10.478820   10.356062
    1       -35.785735    6.254357    8.628761
    1       -33.666617    6.706057    8.258032
    1       -32.584104    9.019209    9.236137
          12
 optimization step            7
    6       -35.890621    9.304517   10.060886
    6       -36.404602    8.139782    9.481747
    6       -34.506726    9.583698    9.981218
    6       -35.529492    7.164942    8.970950
    6       -33.669372    8.694042    9.297876
    6       -34.174885    7.485062    8.781708
    1       -36.565829   10.001815   10.571351
    1       -37.491086    7.997219    9.431998
    1       -34.091363   10.482798   10.454007
    1       -35.914542    6.170812    8.723880
    1       -33.499847    6.803190    8.247653
    1       -32.601112    8.926171    9.153592
          12
 optimization step            8
    6       -35.931077    9.255141   10.037204
    6       -36.482165    8.145542    9.491561
    6       -34.516601    9.537525    9.956451
    6       -35.517066    7.231783    8.954873
    6       -33.625325    8.689599    9.378465
    6       -34.192712    7.501987    8.819339
    1       -36.365829   10.105584   10.596100
    1       -37.538374    7.823696    9.461181
    1       -34.112733   10.494234   10.342557
    1       -35.773777    6.248881    8.599652
    1       -33.690590    6.690835    8.259773
    1       -32.593227    9.029242    9.259712
          12
 optimization step            9
    6       -35.890379    9.306266   10.061426
    6       -36.412126    8.139305    9.482385
    6       -34.509751    9.582305    9.980966
    6       -35.528244    7.166963    8.968590
    6       -33.661874    8.693622    9.301034
    6       -34.175423    7.484604    8.783609
    1       -36.554856   10.008428   10.573280
    1       -37.494357    7.986357    9.434077
    1       -34.093187   10.483835   10.447040
    1       -35.906748    6.173953    8.715396
    1       -33.511087    6.796362    8.248323
    1       -32.601446    8.932049    9.160741
          12
 optimization step           10
    6       -35.891414    9.306517   10.061363
    6       -36.413555    8.139607    9.483226
    6       -34.508758    9.580945    9.979963
    6       -35.529844    7.168899    8.967620
    6       -33.660045    8.692799    9.302558
    6       -34.173811    7.485615    8.785136
    1       -36.550431   10.012824   10.575063
    1       -37.497312    7.980193    9.435611
    1       -34.094542   10.485089   10.443247
    1       -35.903406    6.173992    8.709845
    1       -33.516303    6.792294    8.248354
    1       -32.600057    8.935275    9.164882
          12
 optimization step           11
    6       -35.891104    9.306895   10.061544
    6       -36.412961    8.139563    9.483150
    6       -34.508682    9.581299    9.980152
    6       -35.529939    7.168387    8.967743
    6       -33.660382    8.692832    9.301941
    6       -34.173674    7.485486    8.784848
    1       -36.551962   10.012030   10.574873
    1       -37.496950    7.981521    9.435387
    1       -34.094379   10.485001   10.444101
    1       -35.904484    6.173394    8.710796
    1       -33.514843    6.793154    8.248261
    1       -32.600117    8.934486    9.164069
          12
 optimization step           12
    6       -35.889890    9.308967   10.062129
    6       -36.414992    8.139676    9.484256
    6       -34.509374    9.581063    9.979879
    6       -35.529381    7.169076    8.966007
    6       -33.657716    8.692335    9.302139
    6       -34.174477    7.484464    8.785764
    1       -36.550772   10.015604   10.576711
    1       -37.498530    7.977361    9.437328
    1       -34.095738   10.486759   10.441307
    1       -35.903305    6.172276    8.705764
    1       -33.517122    6.790186    8.248070
    1       -32.598181    8.936281    9.167513
          12
 optimization step           13
    6       -35.877155    9.342703   10.086490
    6       -36.326641    8.155202    9.469228
    6       -34.467764    9.619616   10.000739
    6       -35.551793    7.086520    9.000659
    6       -33.714419    8.705873    9.221526
    6       -34.152298    7.473089    8.734193
    1       -36.750772    9.920782   10.555613
    1       -37.453481    8.141557    9.416517
    1       -34.077727   10.482771   10.548032
    1       -36.043454    6.093582    8.817038
    1       -33.327845    6.896113    8.236887
    1       -32.596129    8.836240    9.069946
          12
 optimization step           14
    6       -35.888946    9.312983   10.064795
    6       -36.406382    8.138235    9.481054
    6       -34.507405    9.583968    9.981637
    6       -35.538935    7.163831    8.971363
    6       -33.661936    8.688883    9.294236
    6       -34.167270    7.487707    8.782204
    1       -36.563696   10.011761   10.576580
    1       -37.496008    7.985267    9.438757
    1       -34.095664   10.488834   10.446256
    1       -35.912273    6.166991    8.708477
    1       -33.505465    6.795144    8.247390
    1       -32.595497    8.930445    9.164116
          12
 optimization step           15
    6       -35.888017    9.313971   10.064484
    6       -36.408122    8.133354    9.494462
    6       -34.512592    9.589384    9.969309
    6       -35.534000    7.170157    8.958025
    6       -33.657425    8.686128    9.304347
    6       -34.169654    7.482785    8.785263
    1       -36.555905   10.017640   10.578676
    1       -37.491594    7.964870    9.475799
    1       -34.105250   10.506877   10.413852
    1       -35.914200    6.183906    8.661375
    1       -33.512306    6.782558    8.253506
    1       -32.590412    8.922420    9.197769
          12
 optimization step           16
    6       -36.054432    9.203081   10.016862
    6       -36.427387    8.275685    9.629030
    6       -34.312592    9.550819    9.896109
    6       -35.397841    7.145080    8.839194
    6       -33.657296    8.834474    9.407536
    6       -34.298198    7.378683    8.802254
    1       -36.558610   10.004547   10.571391
    1       -37.525016    7.933725    9.518958
    1       -34.098654   10.524307   10.366029
    1       -35.921695    6.208387    8.620039
    1       -33.498202    6.797468    8.266361
    1       -32.589555    8.897792    9.223104
          12
 optimization step           17
    6       -35.888996    9.312305   10.063971
    6       -36.408019    8.133219    9.496384
    6       -34.511795    9.590107    9.967599
    6       -35.532846    7.170880    8.955870
    6       -33.657561    8.686567    9.306890
    6       -34.170179    7.482458    8.785450
    1       -36.555309   10.016323   10.577801
    1       -37.491388    7.962846    9.482001
    1       -34.105810   10.509716   10.408669
    1       -35.915628    6.187646    8.655408
    1       -33.511569    6.782596    8.254980
    1       -32.590377    8.919387    9.201845
          12
 optimization step           18
    6       -35.893361    9.279543   10.055161
    6       -36.407680    8.101055    9.537927
    6       -34.521955    9.616104    9.922567
    6       -35.518009    7.208891    8.903815
    6       -33.658658    8.671463    9.373352
    6       -34.168485    7.491445    8.796302
    1       -36.517220    9.993407   10.557104
    1       -37.483318    7.883806    9.673918
    1       -34.130624   10.596893   10.240527
    1       -35.944688    6.306181    8.455408
    1       -33.510917    6.764508    8.299664
    1       -32.584561    8.840752    9.341123
          12
 optimization step           19
    6       -35.889227    9.312219   10.063889
    6       -36.409469    8.128047    9.510321
    6       -34.511057    9.594790    9.956510
    6       -35.536589    7.178488    8.938629
    6       -33.652265    8.681497    9.318845
    6       -34.171139    7.480551    8.790557
    1       -36.554528   10.018190   10.578737
    1       -37.491853    7.941056    9.522283
    1       -34.111781   10.529863   10.372012
    1       -35.922190    6.204267    8.608301
    1       -33.509211    6.779564    8.264072
    1       -32.580169    8.905518    9.232711
          12
 optimization step           20
    6       -35.885582    9.315298   10.064239
    6       -36.407391    8.125839    9.507309
    6       -34.514453    9.595076    9.959377
    6       -35.538896    7.176902    8.941219
    6       -33.653177    8.680336    9.315721
    6       -34.168980    7.482604    8.790535
    1       -36.558131   10.016308   10.577807
    1       -37.488968    7.939734    9.531745
    1       -34.111415   10.532523   10.365443
    1       -35.927381    6.209074    8.600457
    1       -33.503651    6.782637    8.266818
    1       -32.581450    8.897717    9.236195
          12
 optimization step           21
    6       -35.887074    9.314790   10.064776
    6       -36.406546    8.123495    9.514106
    6       -34.514900    9.598702    9.953634
    6       -35.539975    7.180329    8.933485
    6       -33.653154    8.677829    9.320706
    6       -34.168475    7.481338    8.791892
    1       -36.558479   10.016193   10.577179
    1       -37.487523    7.934994    9.541836
    1       -34.112078   10.537051   10.357579
    1       -35.930076    6.213670    8.589348
    1       -33.501695    6.782429    8.269695
    1       -32.579502    8.893228    9.242632
          12
 optimization step           22
    6       -36.058032    9.172693   10.018829
    6       -36.433474    8.295839    9.617920
    6       -34.314900    9.566028    9.888703
    6       -35.355501    7.148369    8.872534
    6       -33.684739    8.846398    9.426015
    6       -34.316012    7.350229    8.754286
    1       -36.547336   10.022567   10.575214
    1       -37.489206    7.922242    9.556910
    1       -34.116254   10.533535   10.345247
    1       -35.924509    6.223080    8.567929
    1       -33.518681    6.771401    8.277689
    1       -32.580833    8.901669    9.255589
          12
 optimization step           23
    6       -35.889384    9.312522   10.064488
    6       -36.405972    8.123162    9.520410
    6       -34.513500    9.601481    9.947557
    6       -35.538439    7.181278    8.926790
    6       -33.653700    8.677763    9.326933
    6       -34.169703    7.479951    8.792047
    1       -36.558514   10.015789   10.575637
    1       -37.484920    7.927668    9.558564
    1       -34.112837   10.543440   10.345495
    1       -35.934267    6.223845    8.572199
    1       -33.498600    6.781395    8.274426
    1       -32.579642    8.885754    9.252322
          12
 optimization step           24
    6       -35.887056    9.314162   10.064377
    6       -36.404644    8.120213    9.520102
    6       -34.515338    9.602557    9.948334
    6       -35.539184    7.185519    8.927376
    6       -33.653942    8.676647    9.326172
    6       -34.169582    7.478773    8.792275
    1       -36.559724   10.015968   10.575903
    1       -37.484756    7.926710    9.561223
    1       -34.113274   10.544208   10.343229
    1       -35.936122    6.222644    8.568680
    1       -33.497745    6.782213    8.275317
    1       -32.578111    8.884434    9.253880
          12
 optimization step           25
    6       -35.886637    9.317899   10.063752
    6       -36.406721    8.119153    9.524651
    6       -34.514975    9.600850    9.947239
    6       -35.543771    7.185623    8.922182
    6       -33.649849    8.675219    9.325359
    6       -34.167994    7.479314    8.795151
    1       -36.556333   10.020308   10.576040
    1       -37.484522    7.914203    9.577758
    1       -34.117523   10.550994   10.330437
    1       -35.936077    6.230376    8.547383
    1       -33.502025    6.774854    8.279334
    1       -32.573051    8.885256    9.267582
          12
 optimization step           26
    6       -35.875385    9.322774   10.067894
    6       -36.421339    8.084162    9.563799
    6       -34.541265    9.617627    9.902223
    6       -35.568700    7.205895    8.871980
    6       -33.633295    8.639007    9.359202
    6       -34.134932    7.494940    8.806659
    1       -36.512619   10.049590   10.560316
    1       -37.462412    7.815337    9.738320
    1       -34.148233   10.600001   10.218038
    1       -35.936922    6.334747    8.361878
    1       -33.545626    6.715093    8.328494
    1       -32.558751    8.874876    9.378064
          12
 optimization step           27
    6       -35.888146    9.313875   10.063764
    6       -36.405816    8.120434    9.523639
    6       -34.514658    9.602375    9.946109
    6       -35.540780    7.185320    8.923557
    6       -33.651993    8.675354    9.327353
    6       -34.168629    7.479773    8.793802
    1       -36.556669   10.018765   10.575445
    1       -37.484125    7.918977    9.571984
    1       -34.115824   10.547964   10.335365
    1       -35.935550    6.229266    8.555495
    1       -33.501092    6.777003    8.278136
    1       -32.576197    8.884942    9.262218
          12
 optimization step           28
    6       -35.887648    9.314293   10.063698
    6       -36.406081    8.119051    9.524125
    6       -34.515292    9.602220    9.945377
    6       -35.540908    7.186483    8.922851
    6       -33.651481    8.675417    9.327991
    6       -34.168569    7.479503    8.794122
    1       -36.555221   10.019935   10.574924
    1       -37.483528    7.915959    9.576701
    1       -34.116835   10.549235   10.332338
    1       -35.935451    6.232171    8.549822
    1       -33.502584    6.774767    8.279584
    1       -32.575880    8.885014    9.265333
          12
 optimization step           29
    6       -35.996174    9.226685   10.035413
    6       -36.419955    8.248651    9.614078
    6       -34.406550    9.592011    9.906735
    6       -35.457256    7.136246    8.859532
    6       -33.673083    8.733351    9.372060
    6       -34.217099    7.439822    8.791161
    1       -36.558986   10.022848   10.571781
    1       -37.484953    7.912364    9.581934
    1       -34.118105   10.546438   10.334829
    1       -35.933197    6.237903    8.544063
    1       -33.501876    6.768800    8.283218
    1       -32.572242    8.888931    9.262064
          12
 optimization step           30
    6       -35.894595    9.312661   10.062536
    6       -36.408130    8.122497    9.540524
    6       -34.508389    9.601964    9.934220
    6       -35.535414    7.188672    8.907227
    6       -33.650148    8.680740    9.338450
    6       -34.172844    7.470910    8.795916
    1       -36.553555   10.025691   10.571159
    1       -37.480526    7.902354    9.599837
    1       -34.121047   10.555019   10.321448
    1       -35.937485    6.244430    8.521786
    1       -33.503999    6.765057    8.288288
    1       -32.573345    8.884054    9.275477
          12
 optimization step           31
    6       -35.744849    9.406752   10.082736
    6       -36.351997    7.947730    9.430303
    6       -34.696052    9.673292   10.012525
    6       -35.723143    7.263374    8.991429
    6       -33.622811    8.480740    9.224975
    6       -34.022713    7.609638    8.837259
    1       -36.556597   10.031993   10.574030
    1       -37.484892    7.900636    9.602733
    1       -34.122406   10.551237   10.318533
    1       -35.944505    6.241680    8.518549
    1       -33.496750    6.766513    8.289468
    1       -32.572761    8.880466    9.274326
          12
 optimization step           32
    6       -35.824555    9.261200   10.035956
    6       -36.389034    8.041965    9.334575
    6       -34.577630    9.568713   10.037370
    6       -35.563427    7.194622    9.081177
    6       -33.701602    8.636708    9.248504
    6       -34.149259    7.582296    8.795612
    1       -36.517132    9.997213   10.542930
    1       -37.429999    7.873583    9.718318
    1       -34.096051   10.586368   10.220791
    1       -35.955597    6.376285    8.442714
    1       -33.535901    6.799877    8.352681
    1       -32.599290    8.835218    9.346238
          12
 optimization step           33
    6       -35.880448    9.311631   10.063326
    6       -36.373609    8.097452    9.534575
    6       -34.512343    9.581642    9.939177
    6       -35.566991    7.212508    8.911739
    6       -33.679970    8.655001    9.317146
    6       -34.155326    7.517939    8.809957
    1       -36.550421   10.020100   10.567605
    1       -37.481687    7.897880    9.615764
    1       -34.117118   10.559171   10.310967
    1       -35.940714    6.253591    8.510359
    1       -33.505495    6.768151    8.293867
    1       -32.575356    8.878983    9.282385
          12
 optimization step           34
    6       -35.856863    9.317837   10.046291
    6       -36.521075    8.059225    9.334575
    6       -34.606034    9.704560   10.052798
    6       -35.504401    7.126136    9.069501
    6       -33.548269    8.657373    9.285955
    6       -34.172640    7.441135    8.758605
    1       -36.533689   10.013341   10.553022
    1       -37.417564    7.897256    9.650619
    1       -34.113622   10.557684   10.264595
    1       -35.941121    6.337882    8.496750
    1       -33.525063    6.788755    8.330679
    1       -32.599137    8.852865    9.313478
          12
 optimization step           35
    6       -35.890818    9.307388   10.060231
    6       -36.399374    8.107628    9.528957
    6       -34.513634    9.606137    9.944436
    6       -35.538364    7.201499    8.917238
    6       -33.650907    8.669705    9.327243
    6       -34.178159    7.480148    8.797091
    1       -36.552855   10.024655   10.569796
    1       -37.475393    7.902540    9.605452
    1       -34.119738   10.553830   10.317303
    1       -35.938673    6.251210    8.519660
    1       -33.504776    6.768278    8.292174
    1       -32.576787    8.881030    9.277286
          12
 optimization step           36
    6       -35.886344    9.315031   10.064041
    6       -36.403486    8.113009    9.533465
    6       -34.517452    9.604644    9.942467
    6       -35.543982    7.193363    8.912650
    6       -33.650482    8.671939    9.329545
    6       -34.167922    7.480425    8.795880
    1       -36.553530   10.023253   10.569098
    1       -37.478701    7.901198    9.605446
    1       -34.119372   10.554497   10.318662
    1       -35.939694    6.248319    8.518449
    1       -33.503571    6.767404    8.291175
    1       -32.574943    8.880967    9.275988
          12
 optimization step           37
    6       -35.894691    9.309320   10.063959
    6       -36.405755    8.129199    9.543094
    6       -34.506022    9.606297    9.935458
    6       -35.532404    7.191337    8.907364
    6       -33.651523    8.679480    9.337287
    6       -34.175871    7.473798    8.796241
    1       -36.559057   10.026251   10.571564
    1       -37.484662    7.900309    9.604623
    1       -34.118970   10.554326   10.323046
    1       -35.943957    6.237723    8.515651
    1       -33.496508    6.763408    8.286480
    1       -32.570055    8.882602    9.272100
          12
 optimization step           38
    6       -35.887958    9.314401   10.063977
    6       -36.405012    8.115360    9.534508
    6       -34.515060    9.604411    9.940620
    6       -35.542823    7.191837    8.911882
    6       -33.650291    8.673871    9.331322
    6       -34.168417    7.478216    8.795781
    1       -36.555403   10.024358   10.569971
    1       -37.479443    7.901280    9.605475
    1       -34.118811   10.555176   10.320374
    1       -35.940652    6.246845    8.518053
    1       -33.501712    6.767029    8.290304
    1       -32.573894    8.881265    9.274601
          12
 optimization step           39
    6       -35.889663    9.313302   10.060787
    6       -36.402439    8.114781    9.531457
    6       -34.516072    9.601727    9.942124
    6       -35.543097    7.189072    8.913839
    6       -33.653677    8.672241    9.329166
    6       -34.167465    7.478064    8.797404
    1       -36.554516   10.022911   10.568836
    1       -37.477385    7.902710    9.606481
    1       -34.117982   10.554497   10.321953
    1       -35.940080    6.253162    8.520059
    1       -33.502114    6.770793    8.292638
    1       -32.574988    8.880787    9.272125
          12
 optimization step           40
    6       -35.851283    9.380242    9.954746
    6       -36.405019    8.119005    9.442151
    6       -34.574655    9.591104   10.007244
    6       -35.515895    7.171290    9.030479
    6       -33.697317    8.671072    9.291141
    6       -34.115253    7.454221    8.898058
    1       -36.572204    9.962556   10.506240
    1       -37.418596    7.957267    9.632308
    1       -34.102044   10.417785   10.445298
    1       -36.026827    6.297886    8.531727
    1       -33.394348    6.868474    8.343107
    1       -32.666036    8.863148    9.074368
          12
 optimization step           41
    6       -35.888186    9.314562   10.062839
    6       -36.404726    8.115728    9.533773
    6       -34.515213    9.604015    9.941110
    6       -35.542363    7.191320    8.912785
    6       -33.651000    8.673956    9.330998
    6       -34.168218    7.477865    8.796678
    1       -36.555500   10.023788   10.569362
    1       -37.478919    7.901816    9.605748
    1       -34.118584   10.554075   10.321555
    1       -35.941277    6.247712    8.518335
    1       -33.500855    6.768074    8.290899
    1       -32.574635    8.881138    9.272785
          12
 optimization step           41
    6       -35.888186    9.314562   10.062839
    6       -36.404726    8.115728    9.533773
    6       -34.515213    9.604015    9.941110
    6       -35.542363    7.191320    8.912785
    6       -33.651000    8.673956    9.330998
    6       -34.168218    7.477865    8.796678
    1       -36.555500   10.023788   10.569362
    1       -37.478919    7.901816    9.605748
    1       -34.118584   10.554075   10.321555
    1       -35.941277    6.247712    8.518335
    1       -33.500855    6.768074    8.290899
    1       -32.574635    8.881138    9.272785
